[OrderedDict([(u'_id', ObjectId('5a0521841d41c8a1860f1d5c')), (u'schema', u'59eee3391d41c80bd16bd085'), (u'title', u'z.xml'), (u'content', OrderedDict([(u'file', OrderedDict([(u'@xmlns:xsi', u'http://www.w3.org/2001/XMLSchema-instance'), (u'name', u'z'), (u'keyword', u'z'), (u'url', u'http://127.0.0.1:8000/rest/blob?id=5a0521751d41c8a1860f1d59')]))])), (u'xml_file', u'<file  xmlns:xsi="http://www.w3.org/2001/XMLSchema-instance" ><name>z</name><keyword>z</keyword><url>http://127.0.0.1:8000/rest/blob?id=5a0521751d41c8a1860f1d59</url></file>'), (u'iduser', u'1'), (u'ispublished', True), (u'status', u'active'), (u'lastmodificationdate', datetime.datetime(2017, 11, 9, 22, 48, 20, 110000)), (u'oai_datestamp', datetime.datetime(2017, 11, 9, 22, 48, 20, 129000)), (u'publicationdate', datetime.datetime(2017, 11, 9, 22, 48, 20, 129000))]), OrderedDict([(u'_id', ObjectId('5a0163521d41c897384a1f1e')), (u'schema', u'59eee3391d41c80bd16bd085'), (u'title', u'321.xml'), (u'content', OrderedDict([(u'file', OrderedDict([(u'@xmlns:xsi', u'http://www.w3.org/2001/XMLSchema-instance'), (u'name', 321), (u'keyword', 321), (u'url', u'http://127.0.0.1:8000/rest/blob?id=5a01633e1d41c897384a1f1b')]))])), (u'xml_file', u'<file  xmlns:xsi="http://www.w3.org/2001/XMLSchema-instance" ><name>321</name><keyword>321</keyword><url>http://127.0.0.1:8000/rest/blob?id=5a01633e1d41c897384a1f1b</url></file>'), (u'iduser', u'1'), (u'ispublished', True), (u'status', u'active'), (u'lastmodificationdate', datetime.datetime(2017, 11, 7, 2, 40, 2, 349000)), (u'oai_datestamp', datetime.datetime(2017, 11, 7, 2, 40, 2, 374000)), (u'publicationdate', datetime.datetime(2017, 11, 7, 2, 40, 2, 374000))]), OrderedDict([(u'_id', ObjectId('5a0157561d41c897384a1efd')), (u'schema', u'59eee3391d41c80bd16bd085'), (u'title', u'ytyty.xml'), (u'content', OrderedDict([(u'file', OrderedDict([(u'@xmlns:xsi', u'http://www.w3.org/2001/XMLSchema-instance'), (u'name', u'jj'), (u'keyword', u'jjj'), (u'url', u'http://127.0.0.1:8000/rest/blob?id=5a01526c1d41c897384a1ef9')]))])), (u'xml_file', u'<file  xmlns:xsi="http://www.w3.org/2001/XMLSchema-instance" ><name>jj</name><keyword>jjj</keyword><url>http://127.0.0.1:8000/rest/blob?id=5a01526c1d41c897384a1ef9</url></file>'), (u'iduser', u'1'), (u'ispublished', True), (u'status', u'active'), (u'lastmodificationdate', datetime.datetime(2017, 11, 7, 1, 48, 54, 294000)), (u'oai_datestamp', datetime.datetime(2017, 11, 7, 1, 48, 54, 427000)), (u'publicationdate', datetime.datetime(2017, 11, 7, 1, 48, 54, 427000))]), OrderedDict([(u'_id', ObjectId('5a0142261d41c897384a1e36')), (u'schema', u'59fbfbbb1d41c86e6f97292b'), (u'title', u'123.xml'), (u'content', OrderedDict([(u'Elements', OrderedDict([(u'@xmlns:xsi', u'http://www.w3.org/2001/XMLSchema-instance'), (u'ElementSystem', 1), (u'Name', 1), (u'PropertyEntrySummary', OrderedDict([(u'ElementSystem', 1), (u'ElementName', 1), (u'AtomicNumber', 1), (u'PhysicalandChemicalProperties', 1), (u'CrystallographicData', 1), (u'Thermo-ChemicalPropertyTables', None), (u'Thermo-ChemicalPropertyCurves', 1)])), (u'PhysicalAndChemicalProperties', OrderedDict([(u'Physicalproperties', OrderedDict([(u'array', OrderedDict([(u'Physicalpropertie', [OrderedDict([(u'Atomicnumber', 1), (u'Electronicconfiguration', 1), (u'Densitygcm', None), (u'Meltingpoint', 1), (u'Boilingpoint', 1), (u'Thermalconductivity', 1), (u'Electricalresistivity', 1)]), OrderedDict([(u'Atomicnumber', 2), (u'Electronicconfiguration', 2), (u'Densitygcm', 3), (u'Meltingpoint', 4), (u'Boilingpoint', 5), (u'Thermalconductivity', 43), (u'Electricalresistivity', 2)])])]))]))]))]))])), (u'xml_file', u'<Elements  xmlns:xsi="http://www.w3.org/2001/XMLSchema-instance" ><ElementSystem>1</ElementSystem><Name>1</Name><PropertyEntrySummary><ElementSystem>1</ElementSystem><ElementName>1</ElementName><AtomicNumber>1</AtomicNumber><PhysicalandChemicalProperties>1</PhysicalandChemicalProperties><CrystallographicData>1</CrystallographicData><Thermo-ChemicalPropertyTables></Thermo-ChemicalPropertyTables><Thermo-ChemicalPropertyCurves>1</Thermo-ChemicalPropertyCurves></PropertyEntrySummary><PhysicalAndChemicalProperties><Physicalproperties><array><Physicalpropertie><Atomicnumber>1</Atomicnumber><Electronicconfiguration>1</Electronicconfiguration><Densitygcm></Densitygcm><Meltingpoint>1</Meltingpoint><Boilingpoint>1</Boilingpoint><Thermalconductivity>1</Thermalconductivity><Electricalresistivity>1</Electricalresistivity></Physicalpropertie><Physicalpropertie><Atomicnumber>2</Atomicnumber><Electronicconfiguration>2</Electronicconfiguration><Densitygcm>3</Densitygcm><Meltingpoint>4</Meltingpoint><Boilingpoint>5</Boilingpoint><Thermalconductivity>43</Thermalconductivity><Electricalresistivity>2</Electricalresistivity></Physicalpropertie></array></Physicalproperties></PhysicalAndChemicalProperties></Elements>'), (u'iduser', u'1'), (u'ispublished', True), (u'status', u'active'), (u'lastmodificationdate', datetime.datetime(2017, 11, 7, 0, 18, 30, 428000)), (u'oai_datestamp', datetime.datetime(2017, 11, 7, 0, 18, 30, 534000)), (u'publicationdate', datetime.datetime(2017, 11, 7, 0, 18, 30, 534000))]), OrderedDict([(u'_id', ObjectId('59fbfebe1d41c86e6f9729c0')), (u'schema', u'59fbfbbb1d41c86e6f97292b'), (u'title', u'asd.xml'), (u'content', OrderedDict([(u'Elements', OrderedDict([(u'@xmlns:xsi', u'http://www.w3.org/2001/XMLSchema-instance'), (u'ElementSystem', u'qwe'), (u'Name', u'qwe'), (u'PropertyEntrySummary', OrderedDict([(u'ElementSystem', 1), (u'ElementName', 2), (u'AtomicNumber', 3), (u'PhysicalandChemicalProperties', 4), (u'CrystallographicData', 5), (u'Thermo-ChemicalPropertyTables', 6), (u'Thermo-ChemicalPropertyCurves', 7)])), (u'PhysicalAndChemicalProperties', OrderedDict([(u'Physicalproperties', OrderedDict([(u'array', OrderedDict([(u'Physicalpropertie', [OrderedDict([(u'Atomicnumber', 1), (u'Electronicconfiguration', 2), (u'Densitygcm', 3), (u'Meltingpoint', 4), (u'Boilingpoint', 5), (u'Thermalconductivity', 6), (u'Electricalresistivity', 7)]), OrderedDict([(u'Atomicnumber', 2), (u'Electronicconfiguration', 3), (u'Densitygcm', 4), (u'Meltingpoint', 5), (u'Boilingpoint', 6), (u'Thermalconductivity', 7), (u'Electricalresistivity', 8)])])]))]))]))]))])), (u'xml_file', u'<Elements  xmlns:xsi="http://www.w3.org/2001/XMLSchema-instance" ><ElementSystem>qwe</ElementSystem><Name>qwe</Name><PropertyEntrySummary><ElementSystem>1</ElementSystem><ElementName>2</ElementName><AtomicNumber>3</AtomicNumber><PhysicalandChemicalProperties>4</PhysicalandChemicalProperties><CrystallographicData>5</CrystallographicData><Thermo-ChemicalPropertyTables>6</Thermo-ChemicalPropertyTables><Thermo-ChemicalPropertyCurves>7</Thermo-ChemicalPropertyCurves></PropertyEntrySummary><PhysicalAndChemicalProperties><Physicalproperties><array><Physicalpropertie><Atomicnumber>1</Atomicnumber><Electronicconfiguration>2</Electronicconfiguration><Densitygcm>3</Densitygcm><Meltingpoint>4</Meltingpoint><Boilingpoint>5</Boilingpoint><Thermalconductivity>6</Thermalconductivity><Electricalresistivity>7</Electricalresistivity></Physicalpropertie><Physicalpropertie><Atomicnumber>2</Atomicnumber><Electronicconfiguration>3</Electronicconfiguration><Densitygcm>4</Densitygcm><Meltingpoint>5</Meltingpoint><Boilingpoint>6</Boilingpoint><Thermalconductivity>7</Thermalconductivity><Electricalresistivity>8</Electricalresistivity></Physicalpropertie></array></Physicalproperties></PhysicalAndChemicalProperties></Elements>'), (u'iduser', u'1'), (u'ispublished', True), (u'status', u'active'), (u'lastmodificationdate', datetime.datetime(2017, 11, 3, 1, 29, 34, 100000)), (u'oai_datestamp', datetime.datetime(2017, 11, 3, 1, 29, 34, 132000)), (u'publicationdate', datetime.datetime(2017, 11, 3, 1, 29, 34, 132000))]), OrderedDict([(u'_id', ObjectId('59fbee391d41c86bbd5b8237')), (u'schema', u'59eee3391d41c80bd16bd083'), (u'title', u'rew.xml'), (u'content', OrderedDict([(u'spreadsheet', OrderedDict([(u'@xmlns:xsi', u'http://www.w3.org/2001/XMLSchema-instance'), (u'name', u'rew'), (u'keyword', u'ewr')]))])), (u'xml_file', u'<spreadsheet  xmlns:xsi="http://www.w3.org/2001/XMLSchema-instance" ><name>rew</name><keyword>ewr</keyword></spreadsheet>'), (u'iduser', u'1'), (u'ispublished', True), (u'status', u'active'), (u'lastmodificationdate', datetime.datetime(2017, 11, 3, 0, 19, 5, 262000)), (u'oai_datestamp', datetime.datetime(2017, 11, 3, 0, 19, 5, 434000)), (u'publicationdate', datetime.datetime(2017, 11, 3, 0, 19, 5, 434000))]), OrderedDict([(u'_id', ObjectId('59f82c611d41c81217470c68')), (u'schema', u'59eee3391d41c80bd16bd083'), (u'title', u'zxc.xml'), (u'content', OrderedDict([(u'spreadsheet', OrderedDict([(u'@xmlns:xsi', u'http://www.w3.org/2001/XMLSchema-instance'), (u'name', u'zxc'), (u'keyword', u'zxc')]))])), (u'xml_file', u'<spreadsheet  xmlns:xsi="http://www.w3.org/2001/XMLSchema-instance" ><name>zxc</name><keyword>zxc</keyword></spreadsheet>'), (u'iduser', u'1'), (u'ispublished', True), (u'status', u'active'), (u'lastmodificationdate', datetime.datetime(2017, 10, 31, 3, 55, 13, 92000)), (u'oai_datestamp', datetime.datetime(2017, 10, 31, 3, 55, 13, 145000)), (u'publicationdate', datetime.datetime(2017, 10, 31, 3, 55, 13, 145000))]), OrderedDict([(u'_id', ObjectId('59f686c61d41c8d2dcdaef4c')), (u'schema', u'59eee3391d41c80bd16bd083'), (u'title', u'qwe.xml'), (u'content', OrderedDict([(u'spreadsheet', OrderedDict([(u'@xmlns:xsi', u'http://www.w3.org/2001/XMLSchema-instance'), (u'name', u'qwe'), (u'keyword', u'wer')]))])), (u'xml_file', u'<spreadsheet  xmlns:xsi="http://www.w3.org/2001/XMLSchema-instance" ><name>qwe</name><keyword>wer</keyword></spreadsheet>'), (u'iduser', u'1'), (u'ispublished', True), (u'status', u'active'), (u'lastmodificationdate', datetime.datetime(2017, 10, 29, 21, 56, 21, 988000)), (u'oai_datestamp', datetime.datetime(2017, 10, 29, 21, 56, 22, 13000)), (u'publicationdate', datetime.datetime(2017, 10, 29, 21, 56, 22, 13000))])]